<?xml version="1.0" encoding="UTF-8"?>

<!-- generated on 3/20/2018 10:59:09 AM by SUMO gui Version 0.32.0
<?xml version="1.0" encoding="UTF-8"?>

<configuration xmlns:xsi="http://www.w3.org/2001/XMLSchema-instance" xsi:noNamespaceSchemaLocation="http://sumo.dlr.de/xsd/sumoConfiguration.xsd">

    <input>
        <net-file value="twoint.net.xml"/>
        <route-files value="twoint.rou.xml"/>
    </input>

    <output>
        <tripinfo-output value="tripinfo.xml"/>
    </output>

    <time>
        <begin value="0"/>
    </time>

    <report>
        <verbose value="true"/>
        <log value="output.txt"/>
        <no-step-log value="true"/>
    </report>

    <traci_server>
        <remote-port value="50919"/>
    </traci_server>

</configuration>
-->

<tripinfos xmlns:xsi="http://www.w3.org/2001/XMLSchema-instance" xsi:noNamespaceSchemaLocation="http://sumo.dlr.de/xsd/tripinfo_file.xsd">
    <tripinfo id="down1_0" depart="0.00" departLane="92o_0" departPos="5.10" departSpeed="0.00" departDelay="0.00" arrival="266.00" arrivalLane="94i_0" arrivalPos="10.00" arrivalSpeed="7.76" duration="266.00" routeLength="2018.30" waitSteps="0" timeLoss="13.09" rerouteNo="0" devices="tripinfo_down1_0" vType="typeNS" speedFactor="1.00" vaporized=""/>
    <tripinfo id="down2_1" depart="1.00" departLane="95o_0" departPos="5.10" departSpeed="0.00" departDelay="0.00" arrival="266.00" arrivalLane="97i_0" arrivalPos="10.00" arrivalSpeed="7.55" duration="265.00" routeLength="2018.30" waitSteps="0" timeLoss="12.35" rerouteNo="0" devices="tripinfo_down2_1" vType="typeNS" speedFactor="1.00" vaporized=""/>
    <tripinfo id="up1_3" depart="3.00" departLane="94o_0" departPos="5.10" departSpeed="0.00" departDelay="0.00" arrival="268.00" arrivalLane="92i_0" arrivalPos="10.00" arrivalSpeed="7.88" duration="265.00" routeLength="2018.30" waitSteps="0" timeLoss="12.68" rerouteNo="0" devices="tripinfo_up1_3" vType="typeNS" speedFactor="1.00" vaporized=""/>
    <tripinfo id="down1_2" depart="5.00" departLane="92o_0" departPos="5.10" departSpeed="0.00" departDelay="3.00" arrival="271.00" arrivalLane="94i_0" arrivalPos="10.00" arrivalSpeed="7.79" duration="266.00" routeLength="2018.30" waitSteps="0" timeLoss="13.25" rerouteNo="0" devices="tripinfo_down1_2" vType="typeNS" speedFactor="1.00" vaporized=""/>
    <tripinfo id="down2_4" depart="5.00" departLane="95o_0" departPos="5.10" departSpeed="0.00" departDelay="1.00" arrival="271.00" arrivalLane="97i_0" arrivalPos="10.00" arrivalSpeed="7.68" duration="266.00" routeLength="2018.30" waitSteps="0" timeLoss="13.39" rerouteNo="0" devices="tripinfo_down2_4" vType="typeNS" speedFactor="1.00" vaporized=""/>
    <tripinfo id="up1_6" depart="11.00" departLane="94o_0" departPos="5.10" departSpeed="0.00" departDelay="0.00" arrival="276.00" arrivalLane="92i_0" arrivalPos="10.00" arrivalSpeed="7.74" duration="265.00" routeLength="2018.30" waitSteps="0" timeLoss="12.59" rerouteNo="0" devices="tripinfo_up1_6" vType="typeNS" speedFactor="1.00" vaporized=""/>
    <tripinfo id="down1_5" depart="10.00" departLane="92o_0" departPos="5.10" departSpeed="0.00" departDelay="0.00" arrival="277.00" arrivalLane="94i_0" arrivalPos="10.00" arrivalSpeed="7.89" duration="267.00" routeLength="2018.30" waitSteps="0" timeLoss="14.38" rerouteNo="0" devices="tripinfo_down1_5" vType="typeNS" speedFactor="1.00" vaporized=""/>
    <tripinfo id="down2_7" depart="16.00" departLane="95o_0" departPos="5.10" departSpeed="0.00" departDelay="0.00" arrival="281.00" arrivalLane="97i_0" arrivalPos="10.00" arrivalSpeed="7.70" duration="265.00" routeLength="2018.30" waitSteps="0" timeLoss="12.54" rerouteNo="0" devices="tripinfo_down2_7" vType="typeNS" speedFactor="1.00" vaporized=""/>
    <tripinfo id="down1_9" depart="22.00" departLane="92o_0" departPos="5.10" departSpeed="0.00" departDelay="0.00" arrival="288.00" arrivalLane="94i_0" arrivalPos="10.00" arrivalSpeed="7.89" duration="266.00" routeLength="2018.30" waitSteps="0" timeLoss="12.85" rerouteNo="0" devices="tripinfo_down1_9" vType="typeNS" speedFactor="1.00" vaporized=""/>
    <tripinfo id="up2_10" depart="23.00" departLane="97o_0" departPos="5.10" departSpeed="0.00" departDelay="0.00" arrival="289.00" arrivalLane="95i_0" arrivalPos="10.00" arrivalSpeed="7.81" duration="266.00" routeLength="2018.30" waitSteps="0" timeLoss="13.04" rerouteNo="0" devices="tripinfo_up2_10" vType="typeNS" speedFactor="1.00" vaporized=""/>
    <tripinfo id="up1_8" depart="22.00" departLane="94o_0" departPos="5.10" departSpeed="0.00" departDelay="0.00" arrival="290.00" arrivalLane="92i_0" arrivalPos="10.00" arrivalSpeed="7.76" duration="268.00" routeLength="2018.30" waitSteps="0" timeLoss="14.77" rerouteNo="0" devices="tripinfo_up1_8" vType="typeNS" speedFactor="1.00" vaporized=""/>
    <tripinfo id="up1_11" depart="27.00" departLane="94o_0" departPos="5.10" departSpeed="0.00" departDelay="2.00" arrival="293.00" arrivalLane="92i_0" arrivalPos="10.00" arrivalSpeed="7.88" duration="266.00" routeLength="2018.30" waitSteps="0" timeLoss="13.36" rerouteNo="0" devices="tripinfo_up1_11" vType="typeNS" speedFactor="1.00" vaporized=""/>
    <tripinfo id="up2_13" depart="31.00" departLane="97o_0" departPos="5.10" departSpeed="0.00" departDelay="0.00" arrival="296.00" arrivalLane="95i_0" arrivalPos="10.00" arrivalSpeed="7.90" duration="265.00" routeLength="2018.30" waitSteps="0" timeLoss="12.68" rerouteNo="0" devices="tripinfo_up2_13" vType="typeNS" speedFactor="1.00" vaporized=""/>
    <tripinfo id="down2_14" depart="32.00" departLane="95o_0" departPos="5.10" departSpeed="0.00" departDelay="0.00" arrival="298.00" arrivalLane="97i_0" arrivalPos="10.00" arrivalSpeed="7.75" duration="266.00" routeLength="2018.30" waitSteps="0" timeLoss="13.19" rerouteNo="0" devices="tripinfo_down2_14" vType="typeNS" speedFactor="1.00" vaporized=""/>
    <tripinfo id="up1_12" depart="32.00" departLane="94o_0" departPos="5.10" departSpeed="0.00" departDelay="1.00" arrival="299.00" arrivalLane="92i_0" arrivalPos="10.00" arrivalSpeed="7.66" duration="267.00" routeLength="2018.30" waitSteps="0" timeLoss="14.07" rerouteNo="0" devices="tripinfo_up1_12" vType="typeNS" speedFactor="1.00" vaporized=""/>
    <tripinfo id="up2_15" depart="36.00" departLane="97o_0" departPos="5.10" departSpeed="0.00" departDelay="3.00" arrival="301.00" arrivalLane="95i_0" arrivalPos="10.00" arrivalSpeed="7.86" duration="265.00" routeLength="2018.30" waitSteps="0" timeLoss="12.14" rerouteNo="0" devices="tripinfo_up2_15" vType="typeNS" speedFactor="1.00" vaporized=""/>
    <tripinfo id="up1_16" depart="37.00" departLane="94o_0" departPos="5.10" departSpeed="0.00" departDelay="3.00" arrival="303.00" arrivalLane="92i_0" arrivalPos="10.00" arrivalSpeed="7.94" duration="266.00" routeLength="2018.30" waitSteps="0" timeLoss="13.48" rerouteNo="0" devices="tripinfo_up1_16" vType="typeNS" speedFactor="1.00" vaporized=""/>
    <tripinfo id="down1_18" depart="41.00" departLane="92o_0" departPos="5.10" departSpeed="0.00" departDelay="0.00" arrival="307.00" arrivalLane="94i_0" arrivalPos="10.00" arrivalSpeed="7.70" duration="266.00" routeLength="2018.30" waitSteps="0" timeLoss="13.31" rerouteNo="0" devices="tripinfo_down1_18" vType="typeNS" speedFactor="1.00" vaporized=""/>
    <tripinfo id="up1_17" depart="42.00" departLane="94o_0" departPos="5.10" departSpeed="0.00" departDelay="2.00" arrival="309.00" arrivalLane="92i_0" arrivalPos="10.00" arrivalSpeed="7.82" duration="267.00" routeLength="2018.30" waitSteps="0" timeLoss="14.71" rerouteNo="0" devices="tripinfo_up1_17" vType="typeNS" speedFactor="1.00" vaporized=""/>
    <tripinfo id="up1_19" depart="47.00" departLane="94o_0" departPos="5.10" departSpeed="0.00" departDelay="3.00" arrival="312.00" arrivalLane="92i_0" arrivalPos="10.00" arrivalSpeed="7.97" duration="265.00" routeLength="2018.30" waitSteps="0" timeLoss="12.69" rerouteNo="0" devices="tripinfo_up1_19" vType="typeNS" speedFactor="1.00" vaporized=""/>
    <tripinfo id="down1_20" depart="49.00" departLane="92o_0" departPos="5.10" departSpeed="0.00" departDelay="0.00" arrival="314.00" arrivalLane="94i_0" arrivalPos="10.00" arrivalSpeed="7.88" duration="265.00" routeLength="2018.30" waitSteps="0" timeLoss="12.19" rerouteNo="0" devices="tripinfo_down1_20" vType="typeNS" speedFactor="1.00" vaporized=""/>
    <tripinfo id="down2_21" depart="51.00" departLane="95o_0" departPos="5.10" departSpeed="0.00" departDelay="0.00" arrival="316.00" arrivalLane="97i_0" arrivalPos="10.00" arrivalSpeed="7.82" duration="265.00" routeLength="2018.30" waitSteps="0" timeLoss="12.03" rerouteNo="0" devices="tripinfo_down2_21" vType="typeNS" speedFactor="1.00" vaporized=""/>
    <tripinfo id="up1_22" depart="56.00" departLane="94o_0" departPos="5.10" departSpeed="0.00" departDelay="0.00" arrival="321.00" arrivalLane="92i_0" arrivalPos="10.00" arrivalSpeed="7.68" duration="265.00" routeLength="2018.30" waitSteps="0" timeLoss="12.51" rerouteNo="0" devices="tripinfo_up1_22" vType="typeNS" speedFactor="1.00" vaporized=""/>
    <tripinfo id="up2_23" depart="57.00" departLane="97o_0" departPos="5.10" departSpeed="0.00" departDelay="0.00" arrival="322.00" arrivalLane="95i_0" arrivalPos="10.00" arrivalSpeed="7.92" duration="265.00" routeLength="2018.30" waitSteps="0" timeLoss="12.34" rerouteNo="0" devices="tripinfo_up2_23" vType="typeNS" speedFactor="1.00" vaporized=""/>
    <tripinfo id="up1_24" depart="63.00" departLane="94o_0" departPos="5.10" departSpeed="0.00" departDelay="0.00" arrival="328.00" arrivalLane="92i_0" arrivalPos="10.00" arrivalSpeed="7.73" duration="265.00" routeLength="2018.30" waitSteps="0" timeLoss="12.54" rerouteNo="0" devices="tripinfo_up1_24" vType="typeNS" speedFactor="1.00" vaporized=""/>
    <tripinfo id="down1_26" depart="67.00" departLane="92o_0" departPos="5.10" departSpeed="0.00" departDelay="0.00" arrival="333.00" arrivalLane="94i_0" arrivalPos="10.00" arrivalSpeed="7.72" duration="266.00" routeLength="2018.30" waitSteps="0" timeLoss="12.98" rerouteNo="0" devices="tripinfo_down1_26" vType="typeNS" speedFactor="1.00" vaporized=""/>
    <tripinfo id="up1_25" depart="68.00" departLane="94o_0" departPos="5.10" departSpeed="0.00" departDelay="4.00" arrival="334.00" arrivalLane="92i_0" arrivalPos="10.00" arrivalSpeed="7.73" duration="266.00" routeLength="2018.30" waitSteps="0" timeLoss="13.59" rerouteNo="0" devices="tripinfo_up1_25" vType="typeNS" speedFactor="1.00" vaporized=""/>
    <tripinfo id="up2_27" depart="72.00" departLane="97o_0" departPos="5.10" departSpeed="0.00" departDelay="0.00" arrival="338.00" arrivalLane="95i_0" arrivalPos="10.00" arrivalSpeed="7.63" duration="266.00" routeLength="2018.30" waitSteps="0" timeLoss="13.07" rerouteNo="0" devices="tripinfo_up2_27" vType="typeNS" speedFactor="1.00" vaporized=""/>
    <tripinfo id="down1_28" depart="74.00" departLane="92o_0" departPos="5.10" departSpeed="0.00" departDelay="0.00" arrival="340.00" arrivalLane="94i_0" arrivalPos="10.00" arrivalSpeed="7.65" duration="266.00" routeLength="2018.30" waitSteps="0" timeLoss="13.27" rerouteNo="0" devices="tripinfo_down1_28" vType="typeNS" speedFactor="1.00" vaporized=""/>
    <tripinfo id="up2_29" depart="77.00" departLane="97o_0" departPos="5.10" departSpeed="0.00" departDelay="3.00" arrival="343.00" arrivalLane="95i_0" arrivalPos="10.00" arrivalSpeed="7.55" duration="266.00" routeLength="2018.30" waitSteps="0" timeLoss="12.84" rerouteNo="0" devices="tripinfo_up2_29" vType="typeNS" speedFactor="1.00" vaporized=""/>
    <tripinfo id="up1_30" depart="81.00" departLane="94o_0" departPos="5.10" departSpeed="0.00" departDelay="0.00" arrival="348.00" arrivalLane="92i_0" arrivalPos="10.00" arrivalSpeed="7.62" duration="267.00" routeLength="2018.30" waitSteps="0" timeLoss="13.90" rerouteNo="0" devices="tripinfo_up1_30" vType="typeNS" speedFactor="1.00" vaporized=""/>
    <tripinfo id="up2_31" depart="85.00" departLane="97o_0" departPos="5.10" departSpeed="0.00" departDelay="0.00" arrival="351.00" arrivalLane="95i_0" arrivalPos="10.00" arrivalSpeed="7.69" duration="266.00" routeLength="2018.30" waitSteps="0" timeLoss="12.99" rerouteNo="0" devices="tripinfo_up2_31" vType="typeNS" speedFactor="1.00" vaporized=""/>
    <tripinfo id="up1_32" depart="92.00" departLane="94o_0" departPos="5.10" departSpeed="0.00" departDelay="0.00" arrival="357.00" arrivalLane="92i_0" arrivalPos="10.00" arrivalSpeed="7.59" duration="265.00" routeLength="2018.30" waitSteps="0" timeLoss="12.58" rerouteNo="0" devices="tripinfo_up1_32" vType="typeNS" speedFactor="1.00" vaporized=""/>
    <tripinfo id="down2_33" depart="93.00" departLane="95o_0" departPos="5.10" departSpeed="0.00" departDelay="0.00" arrival="359.00" arrivalLane="97i_0" arrivalPos="10.00" arrivalSpeed="7.93" duration="266.00" routeLength="2018.30" waitSteps="0" timeLoss="12.73" rerouteNo="0" devices="tripinfo_down2_33" vType="typeNS" speedFactor="1.00" vaporized=""/>
    <tripinfo id="up2_34" depart="98.00" departLane="97o_0" departPos="5.10" departSpeed="0.00" departDelay="0.00" arrival="363.00" arrivalLane="95i_0" arrivalPos="10.00" arrivalSpeed="7.73" duration="265.00" routeLength="2018.30" waitSteps="0" timeLoss="12.46" rerouteNo="0" devices="tripinfo_up2_34" vType="typeNS" speedFactor="1.00" vaporized=""/>
    <tripinfo id="up2_35" depart="103.00" departLane="97o_0" departPos="5.10" departSpeed="0.00" departDelay="2.00" arrival="368.00" arrivalLane="95i_0" arrivalPos="10.00" arrivalSpeed="7.77" duration="265.00" routeLength="2018.30" waitSteps="0" timeLoss="12.51" rerouteNo="0" devices="tripinfo_up2_35" vType="typeNS" speedFactor="1.00" vaporized=""/>
    <tripinfo id="down2_36" depart="103.00" departLane="95o_0" departPos="5.10" departSpeed="0.00" departDelay="0.00" arrival="369.00" arrivalLane="97i_0" arrivalPos="10.00" arrivalSpeed="7.91" duration="266.00" routeLength="2018.30" waitSteps="0" timeLoss="13.16" rerouteNo="0" devices="tripinfo_down2_36" vType="typeNS" speedFactor="1.00" vaporized=""/>
    <tripinfo id="down2_37" depart="108.00" departLane="95o_0" departPos="5.10" departSpeed="0.00" departDelay="4.00" arrival="373.00" arrivalLane="97i_0" arrivalPos="10.00" arrivalSpeed="7.85" duration="265.00" routeLength="2018.30" waitSteps="0" timeLoss="12.04" rerouteNo="0" devices="tripinfo_down2_37" vType="typeNS" speedFactor="1.00" vaporized=""/>
    <tripinfo id="down2_38" depart="112.00" departLane="95o_0" departPos="5.10" departSpeed="0.00" departDelay="6.00" arrival="379.00" arrivalLane="97i_0" arrivalPos="10.00" arrivalSpeed="7.95" duration="267.00" routeLength="2018.30" waitSteps="0" timeLoss="14.06" rerouteNo="0" devices="tripinfo_down2_38" vType="typeNS" speedFactor="1.00" vaporized=""/>
    <tripinfo id="up1_40" depart="115.00" departLane="94o_0" departPos="5.10" departSpeed="0.00" departDelay="0.00" arrival="380.00" arrivalLane="92i_0" arrivalPos="10.00" arrivalSpeed="7.72" duration="265.00" routeLength="2018.30" waitSteps="0" timeLoss="12.36" rerouteNo="0" devices="tripinfo_up1_40" vType="typeNS" speedFactor="1.00" vaporized=""/>
    <tripinfo id="down1_41" depart="117.00" departLane="92o_0" departPos="5.10" departSpeed="0.00" departDelay="0.00" arrival="383.00" arrivalLane="94i_0" arrivalPos="10.00" arrivalSpeed="7.85" duration="266.00" routeLength="2018.30" waitSteps="0" timeLoss="13.23" rerouteNo="0" devices="tripinfo_down1_41" vType="typeNS" speedFactor="1.00" vaporized=""/>
    <tripinfo id="down2_39" depart="118.00" departLane="95o_0" departPos="5.10" departSpeed="0.00" departDelay="10.00" arrival="384.00" arrivalLane="97i_0" arrivalPos="10.00" arrivalSpeed="8.00" duration="266.00" routeLength="2018.30" waitSteps="0" timeLoss="12.76" rerouteNo="0" devices="tripinfo_down2_39" vType="typeNS" speedFactor="1.00" vaporized=""/>
    <tripinfo id="down1_42" depart="122.00" departLane="92o_0" departPos="5.10" departSpeed="0.00" departDelay="2.00" arrival="388.00" arrivalLane="94i_0" arrivalPos="10.00" arrivalSpeed="7.97" duration="266.00" routeLength="2018.30" waitSteps="0" timeLoss="13.31" rerouteNo="0" devices="tripinfo_down1_42" vType="typeNS" speedFactor="1.00" vaporized=""/>
    <tripinfo id="down1_43" depart="126.00" departLane="92o_0" departPos="5.10" departSpeed="0.00" departDelay="3.00" arrival="392.00" arrivalLane="94i_0" arrivalPos="10.00" arrivalSpeed="7.55" duration="266.00" routeLength="2018.30" waitSteps="0" timeLoss="13.07" rerouteNo="0" devices="tripinfo_down1_43" vType="typeNS" speedFactor="1.00" vaporized=""/>
    <tripinfo id="up1_45" depart="126.00" departLane="94o_0" departPos="5.10" departSpeed="0.00" departDelay="0.00" arrival="392.00" arrivalLane="92i_0" arrivalPos="10.00" arrivalSpeed="7.88" duration="266.00" routeLength="2018.30" waitSteps="0" timeLoss="13.18" rerouteNo="0" devices="tripinfo_up1_45" vType="typeNS" speedFactor="1.00" vaporized=""/>
    <tripinfo id="up2_48" depart="129.00" departLane="97o_0" departPos="5.10" departSpeed="0.00" departDelay="0.00" arrival="395.00" arrivalLane="95i_0" arrivalPos="10.00" arrivalSpeed="7.92" duration="266.00" routeLength="2018.30" waitSteps="0" timeLoss="13.09" rerouteNo="0" devices="tripinfo_up2_48" vType="typeNS" speedFactor="1.00" vaporized=""/>
    <tripinfo id="down1_44" depart="130.00" departLane="92o_0" departPos="5.10" departSpeed="0.00" departDelay="5.00" arrival="396.00" arrivalLane="94i_0" arrivalPos="10.00" arrivalSpeed="7.98" duration="266.00" routeLength="2018.30" waitSteps="0" timeLoss="13.19" rerouteNo="0" devices="tripinfo_down1_44" vType="typeNS" speedFactor="1.00" vaporized=""/>
    <tripinfo id="down2_50" depart="135.00" departLane="95o_0" departPos="5.10" departSpeed="0.00" departDelay="0.00" arrival="401.00" arrivalLane="97i_0" arrivalPos="10.00" arrivalSpeed="7.81" duration="266.00" routeLength="2018.30" waitSteps="0" timeLoss="13.16" rerouteNo="0" devices="tripinfo_down2_50" vType="typeNS" speedFactor="1.00" vaporized=""/>
    <tripinfo id="up1_46" depart="131.00" departLane="94o_0" departPos="5.10" departSpeed="0.00" departDelay="4.00" arrival="402.00" arrivalLane="92i_0" arrivalPos="10.00" arrivalSpeed="7.61" duration="271.00" routeLength="2018.30" waitSteps="0" timeLoss="17.10" rerouteNo="0" devices="tripinfo_up1_46" vType="typeNS" speedFactor="1.00" vaporized=""/>
    <tripinfo id="down2_52" depart="145.00" departLane="95o_0" departPos="5.10" departSpeed="0.00" departDelay="0.00" arrival="410.00" arrivalLane="97i_0" arrivalPos="10.00" arrivalSpeed="7.59" duration="265.00" routeLength="2018.30" waitSteps="0" timeLoss="12.67" rerouteNo="0" devices="tripinfo_down2_52" vType="typeNS" speedFactor="1.00" vaporized=""/>
    <tripinfo id="up2_54" depart="149.00" departLane="97o_0" departPos="5.10" departSpeed="0.00" departDelay="0.00" arrival="415.00" arrivalLane="95i_0" arrivalPos="10.00" arrivalSpeed="7.86" duration="266.00" routeLength="2018.30" waitSteps="0" timeLoss="13.06" rerouteNo="0" devices="tripinfo_up2_54" vType="typeNS" speedFactor="1.00" vaporized=""/>
    <tripinfo id="down1_47" depart="135.00" departLane="92o_0" departPos="5.10" departSpeed="0.00" departDelay="6.00" arrival="417.00" arrivalLane="94i_0" arrivalPos="10.00" arrivalSpeed="7.67" duration="282.00" routeLength="2018.30" waitSteps="0" timeLoss="17.86" rerouteNo="0" devices="tripinfo_down1_47" vType="typeNS" speedFactor="1.00" vaporized=""/>
    <tripinfo id="up1_49" depart="136.00" departLane="94o_0" departPos="5.10" departSpeed="0.00" departDelay="4.00" arrival="424.00" arrivalLane="92i_0" arrivalPos="10.00" arrivalSpeed="7.94" duration="288.00" routeLength="2018.30" waitSteps="1" timeLoss="18.91" rerouteNo="0" devices="tripinfo_up1_49" vType="typeNS" speedFactor="1.00" vaporized=""/>
    <tripinfo id="down2_58" depart="162.00" departLane="95o_0" departPos="5.10" departSpeed="0.00" departDelay="0.00" arrival="427.00" arrivalLane="97i_0" arrivalPos="10.00" arrivalSpeed="7.59" duration="265.00" routeLength="2018.30" waitSteps="0" timeLoss="12.26" rerouteNo="0" devices="tripinfo_down2_58" vType="typeNS" speedFactor="1.00" vaporized=""/>
    <tripinfo id="up2_60" depart="164.00" departLane="97o_0" departPos="5.10" departSpeed="0.00" departDelay="0.00" arrival="429.00" arrivalLane="95i_0" arrivalPos="10.00" arrivalSpeed="7.63" duration="265.00" routeLength="2018.30" waitSteps="0" timeLoss="12.67" rerouteNo="0" devices="tripinfo_up2_60" vType="typeNS" speedFactor="1.00" vaporized=""/>
    <tripinfo id="down2_61" depart="170.00" departLane="95o_0" departPos="5.10" departSpeed="0.00" departDelay="0.00" arrival="436.00" arrivalLane="97i_0" arrivalPos="10.00" arrivalSpeed="7.89" duration="266.00" routeLength="2018.30" waitSteps="0" timeLoss="12.93" rerouteNo="0" devices="tripinfo_down2_61" vType="typeNS" speedFactor="1.00" vaporized=""/>
    <tripinfo id="down1_51" depart="140.00" departLane="92o_0" departPos="5.10" departSpeed="0.00" departDelay="3.00" arrival="438.00" arrivalLane="94i_0" arrivalPos="10.00" arrivalSpeed="7.97" duration="298.00" routeLength="2018.30" waitSteps="0" timeLoss="20.86" rerouteNo="0" devices="tripinfo_down1_51" vType="typeNS" speedFactor="1.00" vaporized=""/>
    <tripinfo id="down2_63" depart="175.00" departLane="95o_0" departPos="5.10" departSpeed="0.00" departDelay="0.00" arrival="441.00" arrivalLane="97i_0" arrivalPos="10.00" arrivalSpeed="7.92" duration="266.00" routeLength="2018.30" waitSteps="0" timeLoss="13.03" rerouteNo="0" devices="tripinfo_down2_63" vType="typeNS" speedFactor="1.00" vaporized=""/>
    <tripinfo id="down2_64" depart="179.00" departLane="95o_0" departPos="5.10" departSpeed="0.00" departDelay="1.00" arrival="446.00" arrivalLane="97i_0" arrivalPos="10.00" arrivalSpeed="7.98" duration="267.00" routeLength="2018.30" waitSteps="1" timeLoss="13.86" rerouteNo="0" devices="tripinfo_down2_64" vType="typeNS" speedFactor="1.00" vaporized=""/>
    <tripinfo id="down1_53" depart="147.00" departLane="92o_0" departPos="5.10" departSpeed="0.00" departDelay="0.00" arrival="468.00" arrivalLane="94i_0" arrivalPos="10.00" arrivalSpeed="7.97" duration="321.00" routeLength="2018.30" waitSteps="0" timeLoss="23.87" rerouteNo="0" devices="tripinfo_down1_53" vType="typeNS" speedFactor="1.00" vaporized=""/>
    <tripinfo id="up2_70" depart="206.00" departLane="97o_0" departPos="5.10" departSpeed="0.00" departDelay="0.00" arrival="471.00" arrivalLane="95i_0" arrivalPos="10.00" arrivalSpeed="7.87" duration="265.00" routeLength="2018.30" waitSteps="0" timeLoss="12.12" rerouteNo="0" devices="tripinfo_up2_70" vType="typeNS" speedFactor="1.00" vaporized=""/>
    <tripinfo id="down2_71" depart="212.00" departLane="95o_0" departPos="5.10" departSpeed="0.00" departDelay="0.00" arrival="477.00" arrivalLane="97i_0" arrivalPos="10.00" arrivalSpeed="7.88" duration="265.00" routeLength="2018.30" waitSteps="0" timeLoss="12.34" rerouteNo="0" devices="tripinfo_down2_71" vType="typeNS" speedFactor="1.00" vaporized=""/>
    <tripinfo id="up1_55" depart="150.00" departLane="94o_0" departPos="5.10" departSpeed="0.00" departDelay="0.00" arrival="479.00" arrivalLane="92i_0" arrivalPos="10.00" arrivalSpeed="7.62" duration="329.00" routeLength="2018.30" waitSteps="0" timeLoss="25.53" rerouteNo="0" devices="tripinfo_up1_55" vType="typeNS" speedFactor="1.00" vaporized=""/>
    <tripinfo id="up2_75" depart="220.00" departLane="97o_0" departPos="5.10" departSpeed="0.00" departDelay="0.00" arrival="487.00" arrivalLane="95i_0" arrivalPos="10.00" arrivalSpeed="7.72" duration="267.00" routeLength="2018.30" waitSteps="0" timeLoss="14.02" rerouteNo="0" devices="tripinfo_up2_75" vType="typeNS" speedFactor="1.00" vaporized=""/>
    <tripinfo id="up1_56" depart="155.00" departLane="94o_0" departPos="5.10" departSpeed="0.00" departDelay="3.00" arrival="500.00" arrivalLane="92i_0" arrivalPos="10.00" arrivalSpeed="7.52" duration="345.00" routeLength="2018.30" waitSteps="0" timeLoss="26.75" rerouteNo="0" devices="tripinfo_up1_56" vType="typeNS" speedFactor="1.00" vaporized=""/>
    <tripinfo id="up2_79" depart="241.00" departLane="97o_0" departPos="5.10" departSpeed="0.00" departDelay="0.00" arrival="506.00" arrivalLane="95i_0" arrivalPos="10.00" arrivalSpeed="7.61" duration="265.00" routeLength="2018.30" waitSteps="0" timeLoss="12.40" rerouteNo="0" devices="tripinfo_up2_79" vType="typeNS" speedFactor="1.00" vaporized=""/>
    <tripinfo id="down2_80" depart="242.00" departLane="95o_0" departPos="5.10" departSpeed="0.00" departDelay="0.00" arrival="508.00" arrivalLane="97i_0" arrivalPos="10.00" arrivalSpeed="7.86" duration="266.00" routeLength="2018.30" waitSteps="0" timeLoss="12.75" rerouteNo="0" devices="tripinfo_down2_80" vType="typeNS" speedFactor="1.00" vaporized=""/>
    <tripinfo id="down2_82" depart="248.00" departLane="95o_0" departPos="5.10" departSpeed="0.00" departDelay="0.00" arrival="513.00" arrivalLane="97i_0" arrivalPos="10.00" arrivalSpeed="7.92" duration="265.00" routeLength="2018.30" waitSteps="0" timeLoss="12.47" rerouteNo="0" devices="tripinfo_down2_82" vType="typeNS" speedFactor="1.00" vaporized=""/>
    <tripinfo id="up2_85" depart="254.00" departLane="97o_0" departPos="5.10" departSpeed="0.00" departDelay="0.00" arrival="520.00" arrivalLane="95i_0" arrivalPos="10.00" arrivalSpeed="7.67" duration="266.00" routeLength="2018.30" waitSteps="0" timeLoss="12.86" rerouteNo="0" devices="tripinfo_up2_85" vType="typeNS" speedFactor="1.00" vaporized=""/>
    <tripinfo id="down1_57" depart="159.00" departLane="92o_0" departPos="5.10" departSpeed="0.00" departDelay="0.00" arrival="523.00" arrivalLane="94i_0" arrivalPos="10.00" arrivalSpeed="7.54" duration="364.00" routeLength="2018.30" waitSteps="0" timeLoss="30.82" rerouteNo="0" devices="tripinfo_down1_57" vType="typeNS" speedFactor="1.00" vaporized=""/>
    <tripinfo id="up2_86" depart="259.00" departLane="97o_0" departPos="5.10" departSpeed="0.00" departDelay="3.00" arrival="524.00" arrivalLane="95i_0" arrivalPos="10.00" arrivalSpeed="7.74" duration="265.00" routeLength="2018.30" waitSteps="0" timeLoss="12.50" rerouteNo="0" devices="tripinfo_up2_86" vType="typeNS" speedFactor="1.00" vaporized=""/>
    <tripinfo id="down2_89" depart="259.00" departLane="95o_0" departPos="5.10" departSpeed="0.00" departDelay="0.00" arrival="526.00" arrivalLane="97i_0" arrivalPos="10.00" arrivalSpeed="7.50" duration="267.00" routeLength="2018.30" waitSteps="0" timeLoss="14.42" rerouteNo="0" devices="tripinfo_down2_89" vType="typeNS" speedFactor="1.00" vaporized=""/>
    <tripinfo id="up2_88" depart="263.00" departLane="97o_0" departPos="5.10" departSpeed="0.00" departDelay="5.00" arrival="530.00" arrivalLane="95i_0" arrivalPos="10.00" arrivalSpeed="7.86" duration="267.00" routeLength="2018.30" waitSteps="1" timeLoss="13.97" rerouteNo="0" devices="tripinfo_up2_88" vType="typeNS" speedFactor="1.00" vaporized=""/>
    <tripinfo id="down2_91" depart="264.00" departLane="95o_0" departPos="5.10" departSpeed="0.00" departDelay="1.00" arrival="530.00" arrivalLane="97i_0" arrivalPos="10.00" arrivalSpeed="7.77" duration="266.00" routeLength="2018.30" waitSteps="0" timeLoss="13.22" rerouteNo="0" devices="tripinfo_down2_91" vType="typeNS" speedFactor="1.00" vaporized=""/>
    <tripinfo id="up2_93" depart="269.00" departLane="97o_0" departPos="5.10" departSpeed="0.00" departDelay="4.00" arrival="534.00" arrivalLane="95i_0" arrivalPos="10.00" arrivalSpeed="7.73" duration="265.00" routeLength="2018.30" waitSteps="0" timeLoss="12.32" rerouteNo="0" devices="tripinfo_up2_93" vType="typeNS" speedFactor="1.00" vaporized=""/>
    <tripinfo id="down2_97" depart="272.00" departLane="95o_0" departPos="5.10" departSpeed="0.00" departDelay="0.00" arrival="538.00" arrivalLane="97i_0" arrivalPos="10.00" arrivalSpeed="8.00" duration="266.00" routeLength="2018.30" waitSteps="0" timeLoss="12.91" rerouteNo="0" devices="tripinfo_down2_97" vType="typeNS" speedFactor="1.00" vaporized=""/>
    <tripinfo id="up1_59" depart="164.00" departLane="94o_0" departPos="5.10" departSpeed="0.00" departDelay="0.00" arrival="541.00" arrivalLane="92i_0" arrivalPos="10.00" arrivalSpeed="7.51" duration="377.00" routeLength="2018.30" waitSteps="0" timeLoss="32.14" rerouteNo="0" devices="tripinfo_up1_59" vType="typeNS" speedFactor="1.00" vaporized=""/>
    <tripinfo id="down2_101" depart="284.00" departLane="95o_0" departPos="5.10" departSpeed="0.00" departDelay="0.00" arrival="549.00" arrivalLane="97i_0" arrivalPos="10.00" arrivalSpeed="7.61" duration="265.00" routeLength="2018.30" waitSteps="0" timeLoss="12.54" rerouteNo="0" devices="tripinfo_down2_101" vType="typeNS" speedFactor="1.00" vaporized=""/>
    <tripinfo id="up2_106" depart="293.00" departLane="97o_0" departPos="5.10" departSpeed="0.00" departDelay="0.00" arrival="559.00" arrivalLane="95i_0" arrivalPos="10.00" arrivalSpeed="7.99" duration="266.00" routeLength="2018.30" waitSteps="0" timeLoss="12.78" rerouteNo="0" devices="tripinfo_up2_106" vType="typeNS" speedFactor="1.00" vaporized=""/>
    <tripinfo id="down2_111" depart="299.00" departLane="95o_0" departPos="5.10" departSpeed="0.00" departDelay="0.00" arrival="564.00" arrivalLane="97i_0" arrivalPos="10.00" arrivalSpeed="7.77" duration="265.00" routeLength="2018.30" waitSteps="0" timeLoss="12.08" rerouteNo="0" devices="tripinfo_down2_111" vType="typeNS" speedFactor="1.00" vaporized=""/>
    <tripinfo id="up2_107" depart="298.00" departLane="97o_0" departPos="5.10" departSpeed="0.00" departDelay="3.00" arrival="565.00" arrivalLane="95i_0" arrivalPos="10.00" arrivalSpeed="7.97" duration="267.00" routeLength="2018.30" waitSteps="0" timeLoss="14.17" rerouteNo="0" devices="tripinfo_up2_107" vType="typeNS" speedFactor="1.00" vaporized=""/>
    <tripinfo id="up1_62" depart="171.00" departLane="94o_0" departPos="5.10" departSpeed="0.00" departDelay="0.00" arrival="572.00" arrivalLane="92i_0" arrivalPos="10.00" arrivalSpeed="7.97" duration="401.00" routeLength="2018.30" waitSteps="0" timeLoss="34.92" rerouteNo="0" devices="tripinfo_up1_62" vType="typeNS" speedFactor="1.00" vaporized=""/>